ITEM: TIMESTEP
       0
ITEM: NUMBER OF ATOMS
     280
ITEM: BOX BOUNDS
    0.000   20.488
    0.000   20.488
    0.000   20.488
ITEM: ATOMS element id molid x y z q vx vy vz
Na                   1             0         19.371   19.423   17.079          1.000    0.000    0.000    0.000
Na                   2             0          4.672   13.109   19.926          1.000    0.000    0.000    0.000
Na                   3             0          3.929   18.979   10.405          1.000    0.000    0.000    0.000
Na                   4             0         17.391   15.080    0.074          1.000    0.000    0.000    0.000
Na                   5             0          5.828    3.093   18.347          1.000    0.000    0.000    0.000
Na                   6             0         10.179    0.036   11.917          1.000    0.000    0.000    0.000
Na                   7             0          8.868    6.953    6.615          1.000    0.000    0.000    0.000
Na                   8             0         18.131    4.955    1.981          1.000    0.000    0.000    0.000
Na                   9             0         15.091   11.080    9.143          1.000    0.000    0.000    0.000
Na                  10             0          0.871    5.541   15.064          1.000    0.000    0.000    0.000
Na                  11             0         12.784    3.226    0.034          1.000    0.000    0.000    0.000
Na                  12             0          1.820    0.203    0.533          1.000    0.000    0.000    0.000
Na                  13             0          2.480   20.339    3.570          1.000    0.000    0.000    0.000
Na                  14             0         15.161    0.580   12.856          1.000    0.000    0.000    0.000
Na                  15             0         14.026   15.739   14.381          1.000    0.000    0.000    0.000
Na                  16             0         13.700   15.255    7.956          1.000    0.000    0.000    0.000
Na                  17             0          9.773    0.728   19.657          1.000    0.000    0.000    0.000
Na                  18             0          2.921    3.736   10.310          1.000    0.000    0.000    0.000
Na                  19             0          9.764    7.417   13.944          1.000    0.000    0.000    0.000
Na                  20             0          1.502   11.939   10.867          1.000    0.000    0.000    0.000
Na                  21             0         10.887    2.206    7.171          1.000    0.000    0.000    0.000
Na                  22             0          7.750   15.883   18.187          1.000    0.000    0.000    0.000
Na                  23             0          6.740    3.962   13.550          1.000    0.000    0.000    0.000
Na                  24             0         12.973   11.137    1.461          1.000    0.000    0.000    0.000
Na                  25             0          1.669   13.350    6.202          1.000    0.000    0.000    0.000
Na                  26             0          6.676    8.939    3.586          1.000    0.000    0.000    0.000
Na                  27             0         17.225   15.080    4.682          1.000    0.000    0.000    0.000
Na                  28             0         13.283   13.652   17.797          1.000    0.000    0.000    0.000
Na                  29             0          4.033   18.313   14.867          1.000    0.000    0.000    0.000
Na                  30             0          6.858    0.235   15.032          1.000    0.000    0.000    0.000
Na                  31             0         11.152    3.870    2.748          1.000    0.000    0.000    0.000
Na                  32             0          9.098   12.723    9.660          1.000    0.000    0.000    0.000
Na                  33             0          7.401   17.696    1.918          1.000    0.000    0.000    0.000
Na                  34             0         17.828    9.350   15.619          1.000    0.000    0.000    0.000
Na                  35             0          5.717   11.996    6.190          1.000    0.000    0.000    0.000
Na                  36             0         19.145    7.230   12.092          1.000    0.000    0.000    0.000
Na                  37             0         13.608    0.739   17.587          1.000    0.000    0.000    0.000
Na                  38             0         18.242    5.077   15.010          1.000    0.000    0.000    0.000
Na                  39             0          7.501    6.609   11.375          1.000    0.000    0.000    0.000
Na                  40             0          0.835   13.558   19.433          1.000    0.000    0.000    0.000
Mg                  41             0          4.640    1.267    6.791          2.000    0.000    0.000    0.000
Mg                  42             0         10.464    6.713   10.382          2.000    0.000    0.000    0.000
Mg                  43             0          8.192   13.348    1.558          2.000    0.000    0.000    0.000
Mg                  44             0         17.942   11.260   19.062          2.000    0.000    0.000    0.000
Mg                  45             0          6.982    5.667    0.762          2.000    0.000    0.000    0.000
Mg                  46             0         11.779    9.514    5.265          2.000    0.000    0.000    0.000
Mg                  47             0         18.901    1.216    3.684          2.000    0.000    0.000    0.000
Mg                  48             0         17.686   14.333   16.656          2.000    0.000    0.000    0.000
Mg                  49             0         20.269    6.080    7.801          2.000    0.000    0.000    0.000
Mg                  50             0          5.309   20.329   18.348          2.000    0.000    0.000    0.000
Mg                  51             0          3.383   17.095   18.960          2.000    0.000    0.000    0.000
Mg                  52             0          6.370    1.754    2.349          2.000    0.000    0.000    0.000
Mg                  53             0          2.724    5.545   19.723          2.000    0.000    0.000    0.000
Mg                  54             0          0.050   15.517   13.661          2.000    0.000    0.000    0.000
Mg                  55             0         10.024   13.743    6.527          2.000    0.000    0.000    0.000
Mg                  56             0          8.991    3.190   10.037          2.000    0.000    0.000    0.000
Mg                  57             0         13.728    5.262   12.444          2.000    0.000    0.000    0.000
Mg                  58             0         10.261   17.600    8.615          2.000    0.000    0.000    0.000
Mg                  59             0          2.353   15.397   10.891          2.000    0.000    0.000    0.000
Mg                  60             0         13.826   12.617    5.209          2.000    0.000    0.000    0.000
Mg                  61             0         14.045    4.060   16.252          2.000    0.000    0.000    0.000
Mg                  62             0         14.253    6.119    4.207          2.000    0.000    0.000    0.000
Mg                  63             0         12.965    7.169   16.102          2.000    0.000    0.000    0.000
Mg                  64             0         15.789   18.353   16.944          2.000    0.000    0.000    0.000
Mg                  65             0          9.396    9.034    1.879          2.000    0.000    0.000    0.000
Mg                  66             0         18.839   18.339   12.683          2.000    0.000    0.000    0.000
Mg                  67             0          0.559    8.272    5.197          2.000    0.000    0.000    0.000
Mg                  68             0         14.255   19.210    3.904          2.000    0.000    0.000    0.000
Mg                  69             0          9.197   16.466   12.829          2.000    0.000    0.000    0.000
Mg                  70             0          1.835    1.702   17.472          2.000    0.000    0.000    0.000
Mg                  71             0          9.657   19.126   15.563          2.000    0.000    0.000    0.000
Mg                  72             0         11.729   17.764   19.069          2.000    0.000    0.000    0.000
Mg                  73             0         10.430   20.220    3.076          2.000    0.000    0.000    0.000
Mg                  74             0          1.703    0.619   12.933          2.000    0.000    0.000    0.000
Mg                  75             0          8.294   19.711    5.888          2.000    0.000    0.000    0.000
Mg                  76             0          5.874   13.673   12.702          2.000    0.000    0.000    0.000
Mg                  77             0          1.970    9.453   13.591          2.000    0.000    0.000    0.000
Mg                  78             0          2.842    7.897    1.938          2.000    0.000    0.000    0.000
Mg                  79             0         16.941   13.610   12.806          2.000    0.000    0.000    0.000
Mg                  80             0          5.794    4.623    8.089          2.000    0.000    0.000    0.000
La                  81             0          6.038   15.990    8.485          3.000    0.000    0.000    0.000
La                  82             0         15.794    2.316    5.813          3.000    0.000    0.000    0.000
La                  83             0         10.226    4.876   17.876          3.000    0.000    0.000    0.000
La                  84             0          9.115   11.466   18.492          3.000    0.000    0.000    0.000
La                  85             0         18.322   15.957    8.911          3.000    0.000    0.000    0.000
La                  86             0          0.081   11.373    2.460          3.000    0.000    0.000    0.000
La                  87             0          5.193    7.900   16.372          3.000    0.000    0.000    0.000
La                  88             0         16.585   19.611    0.483          3.000    0.000    0.000    0.000
La                  89             0          4.383   15.234    3.566          3.000    0.000    0.000    0.000
La                  90             0         17.483    3.922   10.448          3.000    0.000    0.000    0.000
La                  91             0          2.843   12.805   15.566          3.000    0.000    0.000    0.000
La                  92             0         20.205   16.678    2.461          3.000    0.000    0.000    0.000
La                  93             0         17.817    2.721   18.754          3.000    0.000    0.000    0.000
La                  94             0          3.875    8.299    7.685          3.000    0.000    0.000    0.000
La                  95             0         16.653    9.523    4.070          3.000    0.000    0.000    0.000
La                  96             0         10.114   12.388   14.295          3.000    0.000    0.000    0.000
La                  97             0          0.132    0.711    8.231          3.000    0.000    0.000    0.000
La                  98             0         13.984   10.684   13.469          3.000    0.000    0.000    0.000
La                  99             0         15.257   18.879    8.841          3.000    0.000    0.000    0.000
La                 100             0         11.770   15.770    2.836          3.000    0.000    0.000    0.000
Cl                 101             0          7.620    3.369    1.421         -1.000    0.000    0.000    0.000
Cl                 102             0          9.607    9.451    4.524         -1.000    0.000    0.000    0.000
Cl                 103             0         18.214    8.139    5.739         -1.000    0.000    0.000    0.000
Cl                 104             0         11.373    8.060    7.462         -1.000    0.000    0.000    0.000
Cl                 105             0          5.455    2.524    4.765         -1.000    0.000    0.000    0.000
Cl                 106             0         18.588   13.875   14.482         -1.000    0.000    0.000    0.000
Cl                 107             0          2.619   17.322    2.271         -1.000    0.000    0.000    0.000
Cl                 108             0         14.905   17.721   19.337         -1.000    0.000    0.000    0.000
Cl                 109             0          7.496   11.780   13.320         -1.000    0.000    0.000    0.000
Cl                 110             0         16.840   20.447   17.776         -1.000    0.000    0.000    0.000
Cl                 111             0         14.822    2.014   15.320         -1.000    0.000    0.000    0.000
Cl                 112             0          0.666   14.769    9.292         -1.000    0.000    0.000    0.000
Cl                 113             0          0.101    3.856    8.734         -1.000    0.000    0.000    0.000
Cl                 114             0          5.237    8.450    9.815         -1.000    0.000    0.000    0.000
Cl                 115             0         19.229    4.567   12.189         -1.000    0.000    0.000    0.000
Cl                 116             0          2.979   11.520    2.176         -1.000    0.000    0.000    0.000
Cl                 117             0         17.382   19.678   14.104         -1.000    0.000    0.000    0.000
Cl                 118             0         11.074   17.252   14.934         -1.000    0.000    0.000    0.000
Cl                 119             0          7.166   12.926   20.054         -1.000    0.000    0.000    0.000
Cl                 120             0         17.834    3.493    4.357         -1.000    0.000    0.000    0.000
Cl                 121             0         15.097   14.842   16.572         -1.000    0.000    0.000    0.000
Cl                 122             0          5.021    5.160   19.906         -1.000    0.000    0.000    0.000
Cl                 123             0         14.225   20.216    1.683         -1.000    0.000    0.000    0.000
Cl                 124             0          6.078    9.598    6.159         -1.000    0.000    0.000    0.000
Cl                 125             0          7.612   15.677   13.797         -1.000    0.000    0.000    0.000
Cl                 126             0         11.665   18.773    4.733         -1.000    0.000    0.000    0.000
Cl                 127             0         18.836   13.866   18.736         -1.000    0.000    0.000    0.000
Cl                 128             0          2.589    8.146   19.980         -1.000    0.000    0.000    0.000
Cl                 129             0          0.162    8.617    2.696         -1.000    0.000    0.000    0.000
Cl                 130             0         16.535    6.852    3.479         -1.000    0.000    0.000    0.000
Cl                 131             0         13.621   13.711    2.565         -1.000    0.000    0.000    0.000
Cl                 132             0          8.352    7.006    2.576         -1.000    0.000    0.000    0.000
Cl                 133             0          7.142    9.633   18.688         -1.000    0.000    0.000    0.000
Cl                 134             0         12.380   19.932   19.555         -1.000    0.000    0.000    0.000
Cl                 135             0         18.039    9.102   18.096         -1.000    0.000    0.000    0.000
Cl                 136             0         10.618    4.417    0.033         -1.000    0.000    0.000    0.000
Cl                 137             0         15.432    2.333   19.834         -1.000    0.000    0.000    0.000
Cl                 138             0         17.726   18.547   10.093         -1.000    0.000    0.000    0.000
Cl                 139             0         16.316    6.046   11.915         -1.000    0.000    0.000    0.000
Cl                 140             0          2.016    5.530    1.719         -1.000    0.000    0.000    0.000
Cl                 141             0         19.499    3.283   16.366         -1.000    0.000    0.000    0.000
Cl                 142             0         10.848   14.423   12.760         -1.000    0.000    0.000    0.000
Cl                 143             0          5.152    7.647    1.847         -1.000    0.000    0.000    0.000
Cl                 144             0          7.503   10.474    1.707         -1.000    0.000    0.000    0.000
Cl                 145             0          0.193   11.087    5.209         -1.000    0.000    0.000    0.000
Cl                 146             0          7.650   13.765    7.422         -1.000    0.000    0.000    0.000
Cl                 147             0         17.042   17.936    7.089         -1.000    0.000    0.000    0.000
Cl                 148             0         17.829   16.926   17.366         -1.000    0.000    0.000    0.000
Cl                 149             0         17.760   13.570   10.646         -1.000    0.000    0.000    0.000
Cl                 150             0          7.265    0.980   19.242         -1.000    0.000    0.000    0.000
Cl                 151             0         14.799    3.160   11.204         -1.000    0.000    0.000    0.000
Cl                 152             0          0.050   19.806   11.655         -1.000    0.000    0.000    0.000
Cl                 153             0          4.602   15.127   18.100         -1.000    0.000    0.000    0.000
Cl                 154             0         19.468   16.474    4.812         -1.000    0.000    0.000    0.000
Cl                 155             0         18.651   14.008    7.043         -1.000    0.000    0.000    0.000
Cl                 156             0          3.508   11.695   12.815         -1.000    0.000    0.000    0.000
Cl                 157             0          9.014   14.078   16.886         -1.000    0.000    0.000    0.000
Cl                 158             0         10.760   15.132    8.611         -1.000    0.000    0.000    0.000
Cl                 159             0         14.058    9.183    6.037         -1.000    0.000    0.000    0.000
Cl                 160             0          3.409    1.385   19.481         -1.000    0.000    0.000    0.000
Cl                 161             0         10.716   17.941   11.285         -1.000    0.000    0.000    0.000
Cl                 162             0         11.108   10.536   12.718         -1.000    0.000    0.000    0.000
Cl                 163             0         10.037   19.841    7.829         -1.000    0.000    0.000    0.000
Cl                 164             0          3.378   16.442    8.306         -1.000    0.000    0.000    0.000
Cl                 165             0         12.938    6.193   10.238         -1.000    0.000    0.000    0.000
Cl                 166             0         10.864   11.697    7.696         -1.000    0.000    0.000    0.000
Cl                 167             0          9.716   17.938   17.861         -1.000    0.000    0.000    0.000
Cl                 168             0         10.925    0.430   14.953         -1.000    0.000    0.000    0.000
Cl                 169             0          4.298    2.753    8.500         -1.000    0.000    0.000    0.000
Cl                 170             0         16.532   16.038   13.251         -1.000    0.000    0.000    0.000
Cl                 171             0         13.735   20.361   11.012         -1.000    0.000    0.000    0.000
Cl                 172             0          5.943    6.616    6.594         -1.000    0.000    0.000    0.000
Cl                 173             0          0.597   11.426   14.311         -1.000    0.000    0.000    0.000
Cl                 174             0         13.779   18.863   15.981         -1.000    0.000    0.000    0.000
Cl                 175             0          1.656   14.035   12.794         -1.000    0.000    0.000    0.000
Cl                 176             0          3.141    5.701    8.749         -1.000    0.000    0.000    0.000
Cl                 177             0         19.783   19.364    3.144         -1.000    0.000    0.000    0.000
Cl                 178             0          8.998   15.788    1.336         -1.000    0.000    0.000    0.000
Cl                 179             0          2.165    0.931   10.199         -1.000    0.000    0.000    0.000
Cl                 180             0          4.004   13.839    6.101         -1.000    0.000    0.000    0.000
Cl                 181             0          4.959   18.177   20.332         -1.000    0.000    0.000    0.000
Cl                 182             0          0.347   18.521    8.131         -1.000    0.000    0.000    0.000
Cl                 183             0         11.614    2.645   18.412         -1.000    0.000    0.000    0.000
Cl                 184             0         11.591   11.882    4.378         -1.000    0.000    0.000    0.000
Cl                 185             0         12.626   17.914    8.464         -1.000    0.000    0.000    0.000
Cl                 186             0          1.412    4.330   18.367         -1.000    0.000    0.000    0.000
Cl                 187             0          2.809    7.854    4.598         -1.000    0.000    0.000    0.000
Cl                 188             0         11.624    4.268   15.593         -1.000    0.000    0.000    0.000
Cl                 189             0         16.861   16.722    1.800         -1.000    0.000    0.000    0.000
Cl                 190             0          4.687    0.383    2.179         -1.000    0.000    0.000    0.000
Cl                 191             0         15.013    5.698   14.556         -1.000    0.000    0.000    0.000
Cl                 192             0          9.336    8.379   11.621         -1.000    0.000    0.000    0.000
Cl                 193             0         20.155   11.092   20.167         -1.000    0.000    0.000    0.000
Cl                 194             0          8.642   17.181    6.665         -1.000    0.000    0.000    0.000
Cl                 195             0         19.360   14.026    2.019         -1.000    0.000    0.000    0.000
Cl                 196             0          1.057    1.670    2.819         -1.000    0.000    0.000    0.000
Cl                 197             0          0.579    5.657    5.641         -1.000    0.000    0.000    0.000
Cl                 198             0          2.410    0.938    6.152         -1.000    0.000    0.000    0.000
Cl                 199             0         14.356   16.664    3.938         -1.000    0.000    0.000    0.000
Cl                 200             0         12.113   15.606   19.866         -1.000    0.000    0.000    0.000
Cl                 201             0         13.034    5.592   17.919         -1.000    0.000    0.000    0.000
Cl                 202             0          1.401   15.972   20.142         -1.000    0.000    0.000    0.000
Cl                 203             0          8.030    6.213   19.092         -1.000    0.000    0.000    0.000
Cl                 204             0          4.919   10.848   15.834         -1.000    0.000    0.000    0.000
Cl                 205             0         11.464    1.467    1.826         -1.000    0.000    0.000    0.000
Cl                 206             0         16.127    4.648   17.462         -1.000    0.000    0.000    0.000
Cl                 207             0         12.042    7.094    4.061         -1.000    0.000    0.000    0.000
Cl                 208             0         15.202   13.110    7.097         -1.000    0.000    0.000    0.000
Cl                 209             0          2.561   11.855   18.083         -1.000    0.000    0.000    0.000
Cl                 210             0         14.129   20.426    5.655         -1.000    0.000    0.000    0.000
Cl                 211             0         16.963   11.233   13.357         -1.000    0.000    0.000    0.000
Cl                 212             0          8.260   19.253   13.525         -1.000    0.000    0.000    0.000
Cl                 213             0          8.310   20.361    1.399         -1.000    0.000    0.000    0.000
Cl                 214             0          2.372    8.471   16.308         -1.000    0.000    0.000    0.000
Cl                 215             0          4.278    5.581   17.042         -1.000    0.000    0.000    0.000
Cl                 216             0         15.718   16.078    9.806         -1.000    0.000    0.000    0.000
Cl                 217             0         18.160   10.487    1.979         -1.000    0.000    0.000    0.000
Cl                 218             0         14.244    9.267    2.957         -1.000    0.000    0.000    0.000
Cl                 219             0          4.697   14.336   10.687         -1.000    0.000    0.000    0.000
Cl                 220             0          6.790   19.006   16.964         -1.000    0.000    0.000    0.000
Cl                 221             0         14.203    4.507    6.014         -1.000    0.000    0.000    0.000
Cl                 222             0         12.255   14.834    5.686         -1.000    0.000    0.000    0.000
Cl                 223             0         18.341    5.088   19.438         -1.000    0.000    0.000    0.000
Cl                 224             0         19.328   17.182   14.763         -1.000    0.000    0.000    0.000
Cl                 225             0         10.930    9.668    0.109         -1.000    0.000    0.000    0.000
Cl                 226             0         17.469    3.368    7.598         -1.000    0.000    0.000    0.000
Cl                 227             0         15.127    1.124    8.436         -1.000    0.000    0.000    0.000
Cl                 228             0          4.702    1.001   16.493         -1.000    0.000    0.000    0.000
Cl                 229             0          3.008   18.764   17.298         -1.000    0.000    0.000    0.000
Cl                 230             0         18.607    0.728    6.051         -1.000    0.000    0.000    0.000
Cl                 231             0          1.006    0.098   15.226         -1.000    0.000    0.000    0.000
Cl                 232             0          6.093    4.470   10.543         -1.000    0.000    0.000    0.000
Cl                 233             0          9.377   14.258    3.725         -1.000    0.000    0.000    0.000
Cl                 234             0          0.988    8.563    7.776         -1.000    0.000    0.000    0.000
Cl                 235             0          8.760   18.617    3.947         -1.000    0.000    0.000    0.000
Cl                 236             0         14.674    9.455   11.116         -1.000    0.000    0.000    0.000
Cl                 237             0         14.215    4.277    2.487         -1.000    0.000    0.000    0.000
Cl                 238             0          9.353   10.326   16.168         -1.000    0.000    0.000    0.000
Cl                 239             0          5.460   15.359    1.033         -1.000    0.000    0.000    0.000
Cl                 240             0          2.413    3.272   13.682         -1.000    0.000    0.000    0.000
Cl                 241             0          6.776   17.786    9.968         -1.000    0.000    0.000    0.000
Cl                 242             0         19.619   16.428   11.639         -1.000    0.000    0.000    0.000
Cl                 243             0         16.607    0.121    3.894         -1.000    0.000    0.000    0.000
Cl                 244             0         19.577    7.412   14.689         -1.000    0.000    0.000    0.000
Cl                 245             0         10.560    7.714   16.976         -1.000    0.000    0.000    0.000
Cl                 246             0         11.798   11.461   18.455         -1.000    0.000    0.000    0.000
Cl                 247             0         18.308    6.450    9.225         -1.000    0.000    0.000    0.000
Cl                 248             0          5.747   17.395    5.000         -1.000    0.000    0.000    0.000
Cl                 249             0          8.226    1.836   12.066         -1.000    0.000    0.000    0.000
Cl                 250             0          4.775   14.780   14.639         -1.000    0.000    0.000    0.000
Cl                 251             0          0.495    9.165   11.922         -1.000    0.000    0.000    0.000
Cl                 252             0          9.082    5.380    8.590         -1.000    0.000    0.000    0.000
Cl                 253             0          1.685   14.357    3.532         -1.000    0.000    0.000    0.000
Cl                 254             0         16.378   12.279    4.210         -1.000    0.000    0.000    0.000
Cl                 255             0         20.413    1.181   18.907         -1.000    0.000    0.000    0.000
Cl                 256             0         16.846   12.137   16.996         -1.000    0.000    0.000    0.000
Cl                 257             0          3.130   11.175    8.348         -1.000    0.000    0.000    0.000
Cl                 258             0         16.089   12.362    0.243         -1.000    0.000    0.000    0.000
Cl                 259             0         18.120    1.258    1.031         -1.000    0.000    0.000    0.000
Cl                 260             0          5.989   19.930    7.713         -1.000    0.000    0.000    0.000
Cl                 261             0         11.075    2.149    9.880         -1.000    0.000    0.000    0.000
Cl                 262             0         10.977   18.198    1.447         -1.000    0.000    0.000    0.000
Cl                 263             0          7.590   14.489   10.808         -1.000    0.000    0.000    0.000